7.333233 15.870745 6.330565 20.816735 17.625478 1.304021 22.454273 11.601781 31.194247 12.229168 3.772344 24.574416 19.861909 14.565113 6.474350 10.608920 8.305688 9.766351 2.597585 19.250371 18.583629 30.971082 17.692768 12.932422 23.084670 4.752958 16.429463 21.953802 27.485476 18.039739 27.583026 26.972030 17.453858 1.503722 23.063801 21.234798 18.988348 7.308903 17.624829 26.808317 10.082882 16.580088 18.328400 23.926597 33.775250 15.723884 21.665306 14.043891 9.321002 23.834526 3.584154 8.996669 20.055286 5.682784 5.335422 13.027678 9.965226 0.347895 5.276415 33.639820
4.483710 12.071596 29.334110 12.728344 27.737980 19.440017 21.994031 10.552724 10.004504 13.770473 16.590403 11.588885 20.225835 1.938895 20.330301 17.095073 4.263541 33.499895 11.702245 22.640313 17.889578 16.923942 5.701400 7.148205 8.853240 5.408808 25.509642 15.392900 22.210339 26.690881 34.644717 5.528153 5.025907 32.330069 12.499425 19.418127 32.854400 22.519060 19.672858 2.516416 16.956153 27.746290 2.995591 30.536468 24.558900 16.843001 15.188256 17.251389 1.251400 29.680992 19.364239 24.517174 29.620277 18.318741 30.915928 15.769904 26.938323 21.845621 13.759918 33.982434
25.046898 15.622394 14.310422 34.488702 17.537544 26.738564 23.576089 9.301948 30.276825 32.543000 25.472061 19.440122 11.199794 5.837496 12.757046 9.571137 17.711789 2.741136 7.110596 20.756096 4.335400 34.637015 1.315725 25.001171 17.223338 20.013076 0.352128 10.437300 3.977527 16.033345 16.174209 16.510796 18.330477 20.989394 16.455821 7.932605 12.623599 27.276115 2.636123 16.736008 13.669061 5.533806 3.396092 31.661286 28.466339 30.748032 11.426563 6.794251 26.297074 4.026531 0.271641 34.746100 21.472320 14.896454 26.744312 3.445577 30.930749 33.772586 3.177030 14.598799
1.199963 14.382038 30.276641 19.778198 17.829736 5.543103 25.391037 10.464399 12.187492 6.726362 7.994116 16.791143 25.236828 32.644048 26.867422 9.340261 27.527559 1.212612 20.305513 16.336347 2.067542 17.965644 4.906094 9.661014 11.176163 10.784368 34.135320 14.996532 4.213925 18.951255 11.785481 25.624685 8.828789 24.984539 21.461011 27.529680 32.107606 8.210168 10.354302 7.306232 27.447225 4.239660 30.670398 4.993996 5.508506 18.225497 8.930468 33.683739 17.011169 14.972157 22.408167 22.144567 32.232320 33.584955 4.906053 0.528609 1.771517 28.178188 18.415026 14.105327
11.010702 22.313801 33.768498 15.553573 32.344119 11.746272 20.918536 9.505789 22.683978 24.859443 28.986217 4.438618 27.794235 18.080077 9.720218 30.321101 21.031043 28.488582 17.984974 10.685870 3.252809 3.883125 28.103797 10.832613 22.535523 21.476094 1.789621 9.117832 0.394600 29.006434 9.030407 22.147904 3.307054 18.867863 34.717970 28.669306 33.149584 1.336304 10.560931 12.913080 16.411012 16.668857 33.842998 17.278780 6.718436 2.122412 30.796208 15.606902 21.401775 10.547957 28.625194 31.380467 24.815567 0.039203 32.962213 31.079408 8.126429 19.913331 18.117378 24.036097
13.496082 19.023406 13.591071 16.207129 16.535551 13.983107 18.791936 6.947626 29.892313 15.305230 24.774375 15.694050 30.744261 32.976506 3.049377 16.326943 24.408669 8.976358 19.141228 27.796599 19.980716 13.252336 14.139651 28.160526 17.089262 18.987199 28.209162 10.339038 1.775395 5.452390 31.204535 10.043507 28.974455 11.405047 8.374302 16.286999 32.861471 15.235463 9.520493 6.335620 23.710746 32.069286 14.110786 21.636987 20.545566 20.466555 28.444476 33.254851 18.902997 31.076260 3.872388 8.545661 20.452938 18.312103 6.552352 24.812332 21.548544 18.449694 24.117406 30.627373
0.008513 10.627479 23.304810 28.463607 3.962380 20.016629 14.243232 8.050771 5.931180 23.122632 1.098262 8.942573 24.837255 8.731428 30.132893 19.397764 8.238635 14.882717 25.460640 31.229728 23.754186 29.307307 21.683871 0.664306 12.584750 2.903425 24.833120 1.515123 4.233735 10.921016 34.917968 7.157203 2.060004 23.897034 14.679895 31.071721 28.490771 22.139165 27.331599 26.583752 20.510270 33.071558 11.762894 5.109160 9.733891 23.570823 29.824377 4.267385 2.979746 28.029495 23.723778 12.096992 8.747500 26.590604 2.634521 16.205255 18.703136 14.589044 5.076380 23.330584
32.657591 0.921534 31.794327 9.314081 24.051361 2.007462 11.155008 1.614598 20.451622 15.497229 4.452719 24.612691 10.330535 10.341120 7.562915 25.909603 28.294803 8.230490 8.744575 25.402256 31.421572 30.316887 31.505290 25.404678 26.060406 19.183298 19.336062 1.179089 16.745038 31.592552 1.299732 18.803039 0.759974 32.361150 11.018703 16.250334 23.088797 15.895230 32.429494 28.736176 2.538950 34.667442 7.476717 31.579336 24.956409 8.857204 18.359044 10.699791 25.723579 5.882577 26.432926 26.621506 31.746432 4.971023 24.311668 5.468642 15.053081 3.861917 12.176110 4.218240
18.295252 22.989806 9.264101 27.955080 0.088019 22.735231 32.911061 5.043975 19.534057 1.587186 25.307741 30.030490 24.600476 24.299521 17.981527 10.836297 18.709971 35.019069 17.295896 29.361300 30.682648 12.670383 13.795143 22.496596 10.687812 28.330462 27.482320 2.154599 34.391667 8.693279 4.222922 28.825078 17.082185 16.934682 0.261966 31.517588 4.474250 22.299487 34.970301 34.860404 6.690493 1.995894 29.571110 1.498130 10.881593 30.361363 8.282512 34.576554 7.841042 0.197882 29.163306 26.449324 32.824147 33.861230 31.597318 3.080774 27.519328 26.993876 17.202380 8.344448
26.078625 6.060543 4.616049 19.128400 4.848664 30.591989 13.484228 21.335291 34.089823 31.999645 20.220919 4.699857 34.365533 30.605236 6.849924 27.147891 14.771256 20.120734 22.281663 10.267919 29.238264 1.199380 16.201375 22.689850 11.831508 25.166320 24.835331 11.628404 2.922928 34.303421 19.570062 7.508872 16.426188 16.213846 5.910086 9.170027 10.204247 13.635898 5.551700 1.456339 24.813401 2.656585 32.392460 30.829362 34.814556 24.180781 26.273023 8.923557 33.156274 20.142448 19.492449 8.930814 33.372676 30.064085 13.653925 15.405591 19.092450 5.895750 31.883915 31.150339
9.683826 29.176559 16.303293 25.977871 28.001367 21.351794 33.837156 23.481566 33.310318 4.985437 13.166362 18.131675 23.000514 34.739408 26.613678 19.932141 10.141558 18.700266 28.220962 13.032223 32.271813 13.413466 31.530743 7.271869 19.976861 27.158963 3.118690 1.847765 11.198594 33.565630 4.147990 2.379980 10.460147 12.393668 14.051433 19.807425 7.877005 2.490472 28.417715 5.185953 7.044503 6.709315 8.192256 32.604660 31.383438 0.240870 22.164728 6.074254 25.486563 18.147662 3.214994 24.910848 26.583921 27.410040 15.916482 26.577636 26.940470 28.856033 12.960158 2.935232
27.349664 23.947772 9.454519 21.071704 18.793481 3.989305 1.888163 13.736293 27.592764 14.039269 28.118147 21.589906 31.002439 11.266915 17.907127 31.679299 3.271347 7.870813 33.688435 23.658606 29.925299 2.734434 5.781760 17.921171 17.321536 32.627545 19.373853 25.434234 31.977896 11.849362 13.774536 28.001918 14.114542 33.662040 32.796402 18.288752 12.555308 19.858895 17.618192 10.317280 19.417169 33.957323 14.999309 34.250485 6.841051 16.424283 14.672781 1.963941 21.356036 33.629445 1.312260 22.633369 3.237459 15.833211 11.996184 18.541923 13.250224 13.612023 13.859063 10.612385
2.932226 7.564221 8.743644 30.414968 0.808644 3.475834 29.600151 25.674898 20.843001 32.249878 21.070371 4.507184 0.129954 32.682252 21.073191 25.914082 10.449964 26.771921 0.780037 34.317282 10.569542 22.054685 33.013363 18.556669 21.438399 20.276916 13.690443 12.661988 28.446720 1.034818 17.368677 27.201569 27.574525 16.761465 4.567515 28.753502 28.104130 15.359674 6.540851 19.631219 11.638295 22.014899 16.977814 1.172881 11.729717 9.270687 1.823922 5.448921 5.329918 14.068745 20.321403 14.478248 27.671648 31.059845 28.659032 3.215262 9.044291 20.968034 14.120222 28.688302
16.263175 32.216258 9.670480 14.058173 10.300451 2.902694 30.969743 31.940185 28.506399 28.005339 5.355728 14.400875 26.713660 19.347178 5.123572 26.614874 25.162184 13.816684 25.905026 1.281677 31.210444 16.489973 25.973924 16.014582 23.230696 17.007536 17.243885 7.070434 33.591940 6.824886 0.800522 9.992227 18.171151 27.451267 25.257624 31.409599 19.776216 24.875613 2.278277 30.567489 8.577711 21.291605 20.004803 3.662167 7.795276 18.405828 17.301815 33.711144 24.243894 26.020560 10.310127 34.279298 12.634972 27.921122 31.731011 3.652045 3.930211 5.927930 10.633333 3.466842
21.243381 28.729265 8.235832 26.528057 32.597651 1.943800 4.222626 11.761589 5.309091 7.041438 31.400827 26.068990 23.149374 28.362028 14.210458 21.124445 17.601124 29.698403 3.763481 33.174868 31.658604 34.073445 34.988423 30.080485 6.386720 4.106498 1.675089 9.754052 9.804996 34.662033 23.802259 19.182700 33.994640 0.799442 13.111688 34.518908 27.829730 4.851917 16.283216 5.306186 18.247224 32.231598 1.207555 22.024054 29.917681 31.689166 25.832031 23.898966 11.279568 15.221343 25.393897 7.595807 9.444199 13.735394 13.822453 2.904228 6.916955 23.021419 15.399079 31.918530
4.686365 22.166858 19.495985 1.463422 18.754314 6.811685 15.945427 30.319730 24.772535 14.709181 9.650525 6.672174 16.160034 23.414286 30.213609 10.165752 33.782519 24.518170 5.952448 11.555792 29.644330 32.180659 7.410816 9.715915 23.771653 3.055244 24.650757 15.579818 25.185082 23.628347 0.756676 0.786103 17.537971 21.146815 21.401046 12.536865 9.526850 8.209281 21.043687 29.113181 27.767030 24.616505 15.482091 31.760264 1.351536 2.311142 27.754245 12.411690 4.520281 18.686737 31.689924 26.840872 8.164762 29.688026 7.887204 34.795893 22.060591 14.459840 0.414491 18.388574
28.867548 19.743372 24.435483 22.152491 12.453370 17.404371 20.879291 13.795456 1.992724 18.447854 5.888094 22.196985 33.198767 7.894736 33.950802 29.108554 8.553707 19.936358 9.068190 8.168440 25.606310 25.647809 7.614038 0.131072 12.227224 19.250037 33.664107 20.702738 16.617849 5.829843 19.564944 29.680204 1.450809 21.253234 24.625316 32.504091 33.428260 15.189067 22.687188 9.955888 31.061727 29.451003 15.899132 34.386722 31.284763 17.772705 29.538783 24.243680 24.582471 29.058530 9.048538 27.938105 19.946808 29.597845 5.418234 21.445069 14.452017 14.596391 29.349716 34.933816
3.923118 6.069868 22.566923 12.517845 18.003576 16.310928 31.286333 11.212858 5.161547 2.208915 15.878019 17.745609 11.327338 26.391086 19.501005 15.683781 26.944302 19.720822 14.355584 18.675321 27.450946 23.748344 1.533832 8.518753 19.563210 6.789676 17.099530 31.720906 23.278985 9.015005 27.763238 27.046492 15.801720 2.784957 32.120505 33.064355 13.542869 29.893643 30.087074 32.486882 11.068758 30.075822 22.068257 24.587489 17.528270 4.532386 3.581379 2.635332 12.890460 25.590301 12.605518 6.649329 8.259668 14.818006 0.621030 2.733160 14.856741 5.648778 6.036972 27.540851
22.594350 8.739719 0.758204 7.339589 20.106190 1.296308 15.582652 26.763981 23.536912 22.265315 3.397378 19.100567 9.810477 4.054839 14.868264 14.638789 22.777062 23.394281 2.391524 18.212221 28.938940 5.347306 4.641095 32.512379 20.321652 12.879838 1.472127 14.439561 16.694267 20.738432 1.874553 33.398014 27.053122 9.473743 26.074496 28.638084 28.218199 28.251488 2.913524 9.764078 20.192669 11.159612 30.179210 3.077921 4.620133 19.074027 33.762636 17.061412 11.224415 22.405577 29.293280 5.978493 0.446103 23.406797 20.263612 28.067806 12.247880 29.308527 25.077692 16.324546
21.431948 13.993426 19.641421 26.428399 4.139371 23.814380 6.869601 9.008484 22.512142 30.561434 32.504318 11.609586 29.205748 20.926073 4.061760 18.964312 2.378866 6.372195 7.953490 12.912027 5.690736 26.421340 9.496720 19.375581 7.306810 12.256984 34.623627 17.863251 30.024795 20.765900 16.547634 7.272043 13.274192 6.893332 31.139229 18.576686 24.306415 26.797051 10.313682 15.169386 27.725146 15.838173 34.460110 24.409520 22.784441 0.772600 16.823660 19.547197 14.665673 11.164712 29.417216 9.577085 18.771820 28.010313 27.875903 11.385615 3.265021 22.838507 5.954223 17.099712
24.127347 30.487309 15.446580 32.548174 20.359092 26.940607 14.038084 28.948797 30.245201 29.802567 11.157454 14.046210 7.707484 27.018287 23.076199 17.429343 10.871637 27.325634 14.292530 2.697598 9.740070 22.869338 29.638537 22.268513 23.358494 21.930223 33.624711 13.503850 12.859918 18.247168 13.211865 25.306147 23.535595 22.039555 18.650885 2.635911 4.188287 19.317140 21.510302 13.757738 6.893407 16.313637 16.257715 26.152483 15.902915 8.167816 21.414322 11.678638 19.888672 8.103318 8.907147 9.591530 34.035063 29.851936 5.097518 5.201481 12.099945 25.086537 10.711695 12.748509
9.674245 28.234285 10.082389 31.077206 32.626799 16.634594 12.804355 22.676320 12.620310 18.837220 24.009396 6.618987 16.420009 16.565223 0.110717 20.557994 2.456493 11.482125 26.399577 27.244728 7.157121 16.713130 5.636636 35.015914 28.388798 25.206188 2.388728 32.625432 25.152888 14.661972 17.481901 3.569538 4.579589 15.564958 15.004992 9.167608 0.727058 17.938401 7.077000 3.421210 33.751744 24.039045 0.316623 4.203350 11.762983 3.017784 18.987567 33.901387 21.673265 19.936082 25.631305 5.883836 28.884170 10.157004 0.326081 33.609200 6.917734 28.151064 32.307855 9.977624
25.165130 22.540621 28.563772 2.267194 13.199450 22.948400 12.439273 11.333096 17.940563 14.516938 18.847048 26.806986 32.025756 8.385176 12.661532 9.679230 5.494580 19.104023 8.636132 29.715398 25.794834 0.584251 19.442886 3.213637 1.672486 15.616986 19.010733 28.412834 21.489758 2.566238 9.541040 31.192142 3.107350 2.152045 7.410668 23.000078 22.199306 12.654083 16.014623 5.229519 26.954501 29.559277 2.541575 29.637782 23.696049 34.804887 5.035550 21.265647 13.008680 15.957771 7.101241 7.377151 32.992832 0.390782 23.292514 17.579386 32.987466 19.299848 11.269381 24.116629
1.988787 1.093094 1.796585 25.553785 9.118850 8.083384 8.735956 0.979663 26.599295 34.448618 18.382871 17.430909 29.498787 33.043816 23.286728 4.009190 34.586844 26.365699 10.020857 24.161437 14.994499 6.528514 12.165241 31.460629 2.358453 6.414940 26.893141 2.967713 32.203757 13.716941 5.986683 22.540862 33.117234 2.695034 14.712168 10.838994 21.233404 1.876613 16.329729 30.568041 18.046027 34.653460 11.676270 3.609795 23.619800 5.099932 33.300049 34.511606 30.636994 28.863263 14.274277 4.563790 8.610564 23.260172 3.291270 5.305232 18.251113 5.876436 13.418712 13.196093
25.907303 15.566582 21.647767 6.621507 2.068812 31.213847 28.904683 23.248677 5.729812 32.242019 10.951111 26.229905 8.587038 27.412867 2.968527 10.945461 32.944892 5.266313 25.991700 27.362335 19.546942 34.120753 26.994816 28.072332 0.131004 12.369075 25.536415 24.149058 27.632887 12.385334 8.648734 19.260925 34.176115 9.391750 7.213818 30.431060 21.228213 3.275719 12.189385 32.112006 10.288692 8.746253 19.306378 14.695260 13.345007 4.669840 18.458490 28.018434 28.547867 10.161163 23.075234 28.611384 4.987574 3.645413 24.650243 30.606728 15.727127 8.107967 29.304364 12.598013
5.183104 0.501128 31.004425 2.651564 21.948177 27.780673 18.027891 20.263637 1.914042 1.594781 30.921123 11.911754 19.867831 18.807902 9.155112 1.401771 23.554163 5.543416 6.898791 6.761615 17.411907 29.329262 19.259205 34.899008 13.505807 9.857568 3.653314 32.411961 2.984329 0.378081 18.299204 8.577705 30.546180 0.320322 3.730533 28.503959 31.688156 24.656853 24.364618 2.234771 3.987462 21.851826 18.959850 28.161876 12.507366 29.574038 27.116890 30.745807 10.419974 27.719379 0.789621 34.090966 26.020471 27.004889 0.145685 34.656550 7.018750 16.851756 34.034355 0.948941
2.576231 1.096750 12.296884 15.987594 23.955449 26.531951 11.153762 25.063095 17.231124 4.074824 18.009947 32.485467 21.790563 25.801141 12.486078 23.730649 9.045974 26.833121 20.033481 0.031856 26.991646 13.213402 14.177063 23.703615 7.764946 18.759798 32.840258 34.946924 29.103819 34.958849 14.876483 32.852280 18.742191 3.365259 16.517539 8.779809 13.183175 7.142261 20.958191 30.778694 16.553471 25.556477 17.662435 1.249341 1.455144 2.108791 13.482954 26.614330 5.831979 28.011428 30.052115 32.847922 33.141374 17.387581 1.946380 12.760432 22.085594 5.561876 32.381280 28.874462
32.373562 11.437153 34.846871 26.085918 15.010063 26.838325 28.477642 0.671477 13.740315 1.627217 1.793899 18.511646 12.104897 9.675406 19.610874 3.946591 15.626159 1.058905 20.525006 10.442927 21.407877 32.757117 31.660591 23.014885 3.887603 26.607317 4.487383 17.436931 24.967992 0.775724 14.324742 20.735394 17.299055 9.896859 18.405040 6.037148 24.570551 21.043511 22.353847 11.599814 13.014668 11.595243 11.431502 2.367969 23.254276 28.407242 10.606457 27.670398 21.454657 28.289290 2.182073 31.421742 18.436007 16.307205 12.431849 28.485638 10.747624 24.922540 2.087830 2.195973
7.044208 20.391600 4.225366 16.218887 15.043144 23.239376 1.540150 28.655707 7.993983 32.154919 3.897429 14.056254 26.313316 19.448539 20.834832 3.840441 20.111621 7.673949 23.620465 31.112197 27.475317 18.656706 13.116208 33.213404 34.793968 12.871392 16.060496 4.671569 33.808495 28.804230 0.905044 15.235306 18.759532 19.955294 6.956010 8.812475 13.634861 13.779145 16.726196 2.443571 31.411588 10.598640 4.661620 29.566055 15.213473 8.725235 34.779271 10.780930 7.195112 11.776859 20.415952 2.951018 34.751155 5.425896 23.041332 13.803313 13.136982 22.326797 7.442874 2.814353
14.271894 25.710983 26.957277 2.603079 13.129434 34.513441 21.426160 13.478046 13.995886 17.479975 17.111461 14.777414 32.728870 3.930694 31.783631 5.923254 14.285902 5.954134 5.470131 15.604763 2.330852 3.123972 4.059137 8.258827 27.552419 8.739438 15.942506 21.624632 25.383417 27.436097 9.096821 2.202646 22.666479 18.605007 12.373144 19.619039 20.694455 1.399309 29.870911 10.141228 26.815421 30.496248 25.996194 1.035505 19.666742 0.292876 4.773939 4.956283 0.398345 10.141680 28.042518 13.094545 11.778369 21.451323 15.853827 18.565484 4.696053 6.083702 32.664871 21.077623
3.005089 32.342628 17.565898 32.562802 21.415797 15.160555 19.330407 26.519581 14.046139 13.493976 19.789192 34.729421 23.977906 29.597014 2.597978 18.708021 33.068811 20.481271 15.949852 13.420507 24.671502 20.987209 28.994211 28.905791 1.544807 7.204069 10.136457 3.830564 7.404400 33.233987 8.399083 34.526918 8.299369 13.092397 0.127043 10.009703 0.160012 15.836556 26.503445 12.762965 13.967377 18.976408 31.359538 21.824661 21.358165 9.456022 16.570869 14.993338 21.836102 8.287212 32.733070 11.063543 32.606485 12.889200 17.472827 14.605162 34.136047 4.225306 11.320988 33.535627
11.055556 18.022944 33.959955 21.185801 8.569140 17.278938 34.825752 23.096733 19.109154 11.733357 2.780406 21.022869 22.709301 28.910884 33.295648 5.411726 26.867073 2.278993 34.227918 28.745633 11.842259 29.383008 12.506775 30.225700 14.721041 9.618150 0.025636 33.620101 8.981261 7.952052 34.775244 20.417873 25.030405 0.315426 15.066397 3.189656 33.586891 20.383279 14.800901 22.105916 16.373224 25.228987 29.611811 4.656605 30.939694 0.628971 31.344462 30.251047 23.956249 32.528385 7.337719 30.961032 2.552953 20.808473 22.457022 11.879199 9.427011 22.204955 19.862383 23.508461
28.242863 17.737866 8.260342 18.226698 26.053385 13.277218 2.970950 33.278432 0.334503 17.898742 0.443661 33.434964 8.061387 19.696807 8.923781 4.685090 24.291290 27.396179 11.589607 25.652547 28.229306 8.057942 20.755539 16.345062 33.833509 14.021227 32.956402 14.463649 10.197595 4.229513 26.371342 11.685705 22.010169 27.126215 16.032060 20.346688 31.570964 16.677646 12.356601 6.233956 22.009297 10.821747 34.772396 1.651854 9.908603 24.237942 10.922603 26.974834 22.221273 21.056868 29.265596 8.332673 32.114651 1.044385 4.477469 17.526464 8.712388 23.704527 5.238310 5.896622
5.363792 5.718836 29.591886 13.029433 13.842236 3.974400 19.845617 4.076067 13.566642 24.315976 34.678345 7.252699 33.798415 23.030335 10.655894 5.725167 18.801545 23.840760 32.442481 2.642917 33.169812 23.416745 3.794455 13.196777 21.687415 15.331774 8.047546 25.102817 29.010257 34.322867 34.123997 2.468493 15.039979 23.791908 18.859674 12.293592 16.588125 33.061435 11.466221 27.088807 17.586468 7.576190 31.608580 5.959920 34.664758 20.376440 29.867260 18.488899 11.640179 2.733848 1.388982 29.497465 4.628032 2.774494 30.445952 31.806376 5.445167 18.536969 4.108734 34.632969
7.313931 34.934875 6.809548 21.408626 15.700525 8.395582 4.401813 29.168062 29.143675 8.597314 23.885798 9.535996 28.689534 26.510629 17.108943 28.700625 30.529410 7.294798 3.078111 19.623473 30.141820 33.414469 23.635291 13.804992 21.834644 30.553649 27.642553 14.564244 4.953618 18.113537 11.716726 15.215979 30.393000 25.593379 3.857775 5.478235 0.023065 2.338414 22.928441 17.292932 29.189009 8.579545 25.308269 34.944694 21.690811 1.454071 33.709062 18.603402 9.111086 33.817631 17.851752 23.953896 30.971232 6.542142 33.038574 15.240929 32.247076 34.138796 15.179820 15.638003
18.933969 11.322528 32.673870 6.081493 34.858793 22.669849 8.634520 34.831457 13.261733 9.453103 31.510970 33.654239 26.664967 23.325316 21.681592 19.663307 7.903061 19.464060 31.876561 18.090762 15.321255 27.519544 3.054268 25.821364 26.436194 15.484841 14.899598 9.554751 0.258578 23.271889 31.541050 25.656395 7.011440 21.090784 8.398181 24.033722 33.654192 21.542916 7.586236 9.122403 18.316586 34.457661 21.722429 16.300822 31.997453 5.787193 0.708025 15.158575 8.315682 6.191939 13.656406 27.152575 31.428588 6.015091 20.752631 3.499043 18.183750 10.359036 19.804337 27.727735
21.395021 28.767821 25.413536 1.847294 33.136805 6.393000 13.541347 1.343346 3.257935 8.825723 24.946856 21.811372 33.268467 33.622358 8.235548 10.922287 15.929562 26.792048 15.289097 11.138792 28.485542 34.663335 3.639120 14.290693 18.658156 26.266546 12.056341 18.587354 26.172861 26.638447 34.445406 32.834341 16.232700 24.279174 8.069048 0.580850 24.214127 33.418277 11.168015 16.927456 16.473000 24.580971 26.178635 32.293239 18.872887 19.186279 21.216457 32.781646 25.188587 6.615470 12.680507 8.006214 1.187468 16.998583 34.352268 17.163921 30.602494 31.322005 18.483384 14.434153
1.499754 19.892154 33.958609 30.132372 9.620545 26.764864 9.671731 9.046426 17.767002 2.009166 6.039712 3.819480 16.538128 13.034325 17.110452 32.765390 22.462803 8.368699 2.166360 15.936623 2.563677 31.306784 19.856823 29.897944 3.115238 29.130326 18.655275 34.969965 15.479494 32.634090 32.679489 10.364448 12.619553 16.760246 21.629478 33.792098 13.244274 33.108752 1.049975 24.046828 14.096499 5.076839 28.698288 6.880807 30.405098 20.296589 2.942246 13.631186 20.338406 23.931961 5.585747 5.575469 0.232512 10.867721 32.628461 0.172783 28.014616 23.642632 22.025182 25.480604
15.811794 25.872194 10.390728 5.691352 31.973503 16.017963 23.257894 14.454438 26.593271 3.175679 6.855924 13.063797 19.345912 0.630662 11.860910 18.338599 0.060247 18.411529 15.223621 14.713689 32.963296 8.401302 28.011362 30.366531 8.101992 16.027098 9.764604 8.908964 8.193519 17.155857 34.847054 0.265454 5.262780 7.335266 24.575913 23.386363 24.373245 1.588591 20.935333 5.658460 16.972658 31.308702 24.285564 30.755857 28.052045 20.219607 12.965149 18.778629 6.734376 13.378007 23.201998 28.793825 7.052515 4.824071 6.133444 4.127572 6.064165 31.048196 2.795178 4.140551
34.542189 19.621571 11.152449 2.836169 5.364995 25.503386 19.938172 18.266860 22.581978 10.866597 29.168264 2.240484 16.589437 7.772171 7.953910 24.854805 8.647294 24.018038 6.808678 14.595720 11.745142 11.331324 33.390941 2.239679 8.150307 33.935919 20.197170 3.137901 33.977254 15.153411 5.269444 1.940919 34.627245 21.965657 8.757236 32.714552 14.655568 7.598093 20.920157 13.798963 21.656420 12.807145 8.102052 1.953251 31.676086 25.355979 10.797544 14.687336 10.223931 16.145825 22.635154 28.000436 17.919295 13.442944 29.852371 30.530361 6.490180 27.623984 6.912852 2.100468
4.654483 27.600459 6.332260 15.642276 30.860865 24.396213 0.225267 18.869493 1.512203 34.629600 10.632515 21.546356 15.235613 25.355673 4.664169 12.090329 26.946449 31.240561 25.103525 30.705765 10.430083 24.921046 23.293781 18.898526 29.227332 30.690175 5.762427 3.558748 15.892873 23.263070 20.802217 20.219506 33.994456 3.112657 3.997235 24.109005 2.858174 0.887730 32.865411 16.966331 1.065687 6.790656 12.700380 30.796928 32.278532 4.114346 24.516030 15.101369 28.389659 3.699860 31.339946 18.121254 4.763638 6.064767 15.423750 1.676138 14.370927 15.155941 12.100588 31.928988
22.878516 15.021296 1.622298 22.693150 30.645686 27.847821 14.299987 22.948506 11.001458 18.874496 31.061022 23.454214 22.856307 20.106386 5.401081 12.674058 16.333058 5.525337 17.513428 33.976577 16.715404 33.165596 23.211390 6.349204 16.064154 11.134143 11.945518 10.346171 30.771382 3.860023 5.167826 15.144732 22.072438 22.492397 0.251117 1.339072 34.659240 30.903400 25.599465 20.155390 7.689354 30.896759 12.720584 13.826124 10.344648 28.824572 13.834217 32.357983 29.215061 20.630422 23.772681 24.227927 6.715214 19.841205 30.832648 3.443427 6.313585 9.340527 0.729247 20.574608
0.678714 5.097045 24.683317 11.845027 26.777821 2.347348 8.707036 9.585833 9.859239 1.286337 28.202917 24.829029 21.210528 8.486966 21.527333 25.737749 15.882581 30.021173 5.687665 12.554958 28.229148 20.909199 30.458790 13.974249 2.454624 29.824929 17.918010 24.592249 27.604177 23.674885 9.196003 30.811170 4.844820 2.103405 7.223023 34.970393 0.993486 13.840117 1.165418 22.741049 26.192830 4.827377 25.124070 26.636085 8.644464 15.104854 17.057607 8.505436 13.704059 10.330756 2.006571 8.341239 6.693673 24.451937 28.821989 32.948344 16.281370 7.617211 0.891067 14.742066
16.893651 20.928229 4.726616 34.658119 19.394540 27.329015 32.150947 3.340973 4.813937 0.863922 21.005784 4.305134 18.780767 4.000977 19.931007 17.835906 34.358994 7.505509 8.450114 3.806245 31.028303 30.762820 14.303085 11.198592 0.578961 29.074331 28.581101 5.598752 20.401180 33.227984 17.889375 28.658542 30.551407 15.220436 20.827395 8.715114 34.264804 24.877263 27.239840 28.738548 24.274571 3.727396 5.369189 13.103299 7.631445 17.029077 3.429074 5.524899 28.491025 9.223526 25.466772 26.651063 1.160519 12.416500 16.712588 15.870825 31.583637 33.620111 10.228278 27.162704
6.292634 14.670965 0.118838 22.533997 30.269730 30.120827 19.259869 27.769068 9.857830 5.740532 12.930679 5.584907 18.152324 0.390655 26.023890 10.707393 5.089163 25.872493 12.888428 9.617629 21.061115 32.895457 18.286646 32.199870 13.568574 21.017316 5.321173 4.080492 6.280764 13.274397 6.078188 26.772937 15.187785 30.917412 7.074060 27.743334 12.348738 4.180237 17.238687 31.782591 6.246998 12.714156 26.430797 9.508302 18.960474 10.900561 31.959494 5.081524 11.831794 24.686458 29.251227 16.348793 26.382578 1.529506 24.279267 15.581297 9.459931 24.630174 5.858794 19.927317
6.777706 6.419719 20.695865 0.449555 13.571509 17.266157 20.747082 16.517896 27.665416 19.395523 31.631131 17.430145 34.094342 18.349673 10.355326 32.500845 32.320331 12.522146 16.315995 3.875962 3.674749 32.398830 23.069674 10.683164 10.168172 8.174179 30.907269 5.943504 23.759761 17.876705 8.387470 16.405020 33.662984 9.066429 34.964277 24.458606 14.578050 13.717041 15.305493 12.832032 21.828497 3.111071 20.890333 23.003442 18.383431 33.265805 0.690726 23.003714 22.827894 10.793887 6.888155 19.820626 22.121974 14.145642 6.417499 9.900068 22.817734 28.533541 17.499484 28.438457
4.269093 14.337338 12.173028 28.663193 27.578536 34.359724 8.533474 16.929667 28.569798 7.038907 21.516011 11.470024 4.945923 7.367335 31.800730 14.382083 21.447406 13.913169 7.059948 5.911544 25.331032 4.670135 12.055652 31.527986 29.177657 21.376931 20.131789 30.481314 16.793242 14.032916 6.908584 12.619423 6.548104 2.523423 13.048772 8.411170 24.298653 29.367201 18.926321 3.616520 6.404884 15.033298 27.463793 10.640784 8.086227 31.692947 9.452401 2.157815 13.865873 11.208049 30.925126 31.518907 18.621957 18.910088 18.659637 21.753409 9.796855 19.918828 32.197757 9.259509
24.655047 4.869152 1.965024 11.402903 15.735639 3.007812 15.671681 30.296440 10.602335 32.404267 14.820754 20.337143 2.919498 5.025699 29.211980 6.053670 0.623553 18.482195 26.912900 1.871240 20.806413 9.333846 26.644745 32.798597 12.022499 3.921847 23.343629 5.646146 21.927914 15.697110 32.950361 0.380537 13.662785 25.704070 33.896695 34.537133 29.064862 18.693226 21.466153 18.471297 28.017664 16.639413 21.005517 30.917088 23.358132 27.962178 29.418898 22.377453 23.305362 27.964184 29.815644 15.049348 13.241577 23.832293 22.615231 19.067296 32.975443 34.184899 9.026990 21.474106
30.150663 28.444738 11.008309 33.768358 28.882806 13.318999 6.075327 5.511455 10.520204 23.833871 4.069279 9.186594 32.333880 0.068652 17.102027 27.963901 16.294362 2.513849 11.902128 23.020511 13.359281 21.485580 26.028748 12.917631 24.633017 22.693858 27.883418 25.090093 25.755942 31.842386 7.290449 9.975652 7.990085 11.699658 23.682543 32.400251 6.918396 5.584715 35.002995 6.135834 4.962116 19.533069 27.458575 4.988648 17.033132 26.146946 8.909144 15.609214 9.541154 25.238619 1.275604 14.638483 11.411613 25.815107 11.595703 8.026659 30.585087 15.931649 23.067095 2.662909
19.051901 3.305601 0.837316 30.530776 5.349601 2.626934 7.352716 9.165093 29.052552 27.165522 28.659848 10.320389 34.371643 30.467811 32.258863 12.691263 31.990290 28.180065 24.016350 7.865090 28.988325 17.569396 32.909778 28.281770 9.017142 27.979159 27.177698 9.142257 21.820019 9.444256 28.965343 20.762626 4.724677 26.790317 8.460502 23.285953 31.817785 34.482364 1.053986 12.542387 24.022384 5.973572 26.318706 13.311834 11.795208 17.953574 3.548115 30.589196 5.619416 20.760834 0.341737 29.853546 15.130489 2.696349 11.645673 18.245966 28.857019 24.048111 15.276770 23.830209
20.076363 3.110017 15.575290 4.845164 0.395827 1.922332 20.145240 22.253165 28.011828 15.108216 21.495908 22.573227 4.522897 5.243588 33.304497 11.950079 19.532070 6.495696 18.609572 0.943311 27.412636 23.649355 6.752509 21.889307 32.575549 15.026890 4.289094 31.113121 29.424532 12.907086 9.393097 26.529347 8.109229 28.823717 30.964924 17.264439 28.953967 7.911078 15.743799 17.307920 7.885350 22.028909 23.180793 17.737309 4.273995 34.702960 7.056774 3.277045 13.370436 27.792986 34.937500 2.685323 28.039941 7.129951 34.353696 0.915354 18.216320 13.667107 8.407853 28.964671