-0.036769
-0.012559
-0.033985
-0.022677
-0.013742
-0.027293
-0.000681
-0.020837
-0.010164
-0.010657
-0.010888
-0.015096
-0.015117
-0.013921
-0.029151
-0.008346
-0.019474
-0.016328
-0.032481
-0.009817
-0.015948
-0.023378
-0.035895
-0.034582
-0.002583
-0.021411
-0.026957
-0.010761
-0.035803
-0.037675
-0.031349
-0.016939
-0.030477
-0.036077
-0.011824
-0.031577
-0.027096
-0.020099
-0.015989
-0.023241
-0.024961
-0.015007
-0.014196
-0.028249
-0.016480
-0.024238
-0.040261
-0.010107
-0.034985
-0.022114
-0.011876
-0.015642
-0.010037
-0.044863
-0.014577
-0.016509
-0.025375
-0.041398
-0.027977
-0.007316
-0.012232
-0.007414
-0.015787
-0.014770
-0.030035
-0.011997
-0.015786
-0.027105
-0.020424
-0.025017
-0.022601
-0.036209
-0.028928
-0.032288
-0.012626
-0.019553
-0.035537
-0.019936
-0.000328
-0.023754
-0.012902
-0.017574
-0.030345
-0.017445
-0.012718
-0.015556
-0.010726
-0.008511
-0.017602
-0.007086
-0.016787
-0.035201
-0.014713
-0.012185
-0.012950
-0.020532
-0.027858
-0.017206
-0.017946
-0.015249
-0.016504
-0.018065
-0.028268
-0.021409
-0.029607
-0.019704
-0.010999
-0.022256
-0.023172
-0.019887
-0.009865
-0.016825
-0.018335
-0.017531
-0.019740
-0.017716
-0.023906
-0.029939
-0.011363
-0.018887
-0.025994
-0.023309
-0.027051
-0.025024
-0.023389
-0.013702
-0.022468
-0.011132
-0.014159
-0.011229
-0.009561
-0.042552
-0.012773
-0.026845
-0.029964
-0.031621
-0.009063
-0.030843
-0.026866
-0.018852
-0.023038
-0.026377
-0.010250
-0.030363
-0.033604
-0.023901
-0.013268
-0.029417
-0.025010
-0.033129
-0.009480
-0.015780
-0.025587
-0.038892
-0.025462
-0.030124
-0.015167
-0.006616
-0.019848
-0.017982
-0.036845
-0.022707
-0.029447
-0.010744
-0.032556
-0.019558
-0.050248
-0.015907
-0.023443
-0.028248
-0.009190
-0.022464
-0.022274
-0.008459
-0.018548
-0.019423
-0.044914
-0.022031
-0.027605
-0.017012
-0.010181
-0.020389
-0.011459
-0.015301
-0.018246
-0.014389
-0.023013
-0.007668
-0.017386
-0.024249
-0.017167
-0.016994
-0.012560
-0.017490
-0.026385
-0.010384
-0.019944
-0.014705
-0.020632
-0.023030
-0.024329
-0.033676
-0.011960
-0.028843
-0.020187
-0.017971
-0.025748
-0.017013
-0.031922
-0.021742
-0.029757
-0.036343
-0.036675
-0.025158
-0.011968
-0.000616
-0.041880
-0.010470
-0.027519
-0.023864
-0.020250
-0.014767
-0.032003
-0.029014
-0.013903
-0.037491
-0.014789
-0.019987
-0.029431
-0.022048
-0.018261
-0.022873
-0.006352
-0.037614
-0.007357
-0.022196
-0.020839
-0.010029
-0.032649
-0.026017
-0.021271
-0.029094
-0.010488
-0.032588
-0.016512
-0.017503
-0.016508
-0.010159
-0.034733
-0.002385
-0.034977
-0.028044
-0.019452
-0.012009
-0.010204
-0.018353
-0.015180
-0.026830
-0.011297
-0.037397
-0.025827
-0.015432
-0.052810
-0.027875
-0.011557
-0.026342
-0.031702
-0.013761
-0.012040
-0.020610
-0.012934
-0.024156
-0.018583
-0.012306
-0.013749
-0.018940
-0.031636
-0.022143
-0.005016
-0.019382
-0.012889
-0.039226
-0.010346
-0.027769
-0.011557
-0.013070
-0.017218
-0.026756
-0.010302
-0.017653
-0.029339
-0.013305
-0.016603
-0.011635
-0.014241
-0.024423
-0.020453
-0.017417
-0.021815
-0.034683
-0.023888
-0.018448
-0.036137
-0.014650
-0.016055
-0.044081
-0.022382
-0.012450
-0.018901
-0.034348
-0.018185
-0.015341
-0.013532
-0.015765
-0.002125
-0.014598
-0.021621
-0.036840
-0.012291
-0.027208
-0.023941
-0.026105
-0.010120
-0.028680
-0.016089
-0.022261
-0.032809
-0.012714
-0.019399
-0.019875
-0.016203
-0.047215
-0.016006
-0.023856
-0.032620
-0.019485
-0.026571
-0.007254
-0.029943
-0.024238
-0.009040
-0.042743
-0.040986
-0.003405
-0.033404
-0.008286
-0.037839
-0.019737
-0.021035
-0.023778
-0.023724
-0.012370
-0.054001
-0.016140
-0.019022
-0.038357
-0.017294
-0.005215
-0.034850
-0.026109
-0.026569
-0.012581
-0.016041
-0.012417
-0.008436
-0.031679
-0.028238
-0.045612
-0.002574
-0.028704
-0.006895
-0.010444
-0.016652
-0.018270
-0.013011
-0.010869
-0.007849
-0.036163
-0.026198
-0.026147
-0.008136
-0.021319
-0.030625
-0.037349
-0.034454
-0.013037
-0.018533
-0.002016
-0.039457
-0.024384
-0.036499
-0.063925
-0.011040
-0.014247
-0.009923
-0.015077
-0.028529
-0.031544
-0.032806
-0.015635
-0.014395
-0.047186
-0.005186
-0.024813
-0.013970
-0.013996
-0.015507
-0.024714
-0.023076
-0.029840
-0.026694
-0.020781
-0.005157
-0.011969
-0.005113
-0.019401
-0.036657
-0.022954
-0.033659
-0.022284
-0.018714
-0.013916
-0.030200
-0.028652
-0.022048
-0.021891
-0.018991
-0.019306
-0.012210
-0.009234
-0.041038
-0.009813
-0.025924
-0.018261
-0.026304
-0.009924
-0.014646
-0.021453
-0.019240
-0.017468
-0.023970
-0.002481
-0.033896
-0.006301
-0.013851
-0.012235
-0.021243
-0.015529
-0.022039
-0.022774
-0.018808
-0.028680
-0.021490
-0.015825
-0.016606
-0.010233
-0.011511
-0.024538
-0.021306
-0.014397
-0.021837
-0.007505
-0.012316
-0.034724
-0.011840
-0.015723
-0.021204
-0.034849
-0.013209
-0.019310
-0.018898
-0.026283
-0.024033
-0.014757
-0.005341
-0.024771
-0.025091
-0.018472
-0.032094
-0.009873
-0.013104
-0.013420
-0.024590
-0.021817
-0.040707
-0.012691
-0.027495
-0.007754
-0.027112
-0.021994
-0.017006
-0.006519
-0.008957
-0.024887
-0.006186
-0.015202
-0.009126
-0.024383
-0.012330
-0.012499
-0.027039
-0.012489
-0.036609
-0.024907
-0.028025
-0.019126
-0.020359
-0.038579
-0.019203
-0.010386
-0.022383
-0.028093
-0.009736
-0.037286
-0.031699
-0.013558
-0.006354
-0.010666
-0.017829
-0.021261
-0.043849
-0.013876
-0.010058
-0.030113
-0.005816
-0.013544
-0.024310
-0.017785
-0.007105
-0.014036
-0.004997
-0.017954
-0.005939
-0.033323
-0.024600
-0.029263
-0.007167
-0.014226
-0.022511
-0.045209
-0.025646
-0.014703
-0.046848
-0.010142
-0.018613
-0.014657
-0.015961
-0.010353
-0.015056
-0.041432
-0.008228
-0.025434
-0.018697
-0.019809
-0.008777
-0.008422
-0.023820
-0.010142
-0.001290
-0.016150
-0.011250
-0.023916
-0.034761
-0.024345
-0.009419
-0.026713
-0.014303
-0.033973
-0.020675
-0.031133
-0.009967
-0.017879
-0.011660
-0.018335
-0.024603
-0.021849
-0.019832
-0.028966
-0.046334
-0.025936
-0.024012
-0.017725
-0.024030
-0.027598
-0.011908
-0.009618
-0.011032
-0.028536
-0.019973
-0.011541
-0.054543
-0.022460
-0.024120
-0.019788
-0.016600
-0.013265
-0.016604
-0.029943
-0.025708
-0.034039
-0.008539
-0.013990
-0.015926
-0.023676
-0.036810
-0.014073
-0.021706
-0.023776
-0.011033
-0.046334
-0.031124
-0.007804
-0.041096
-0.031542
-0.028419
-0.019123
-0.010467
-0.030736
-0.028676
-0.008155
-0.017805
-0.023687
-0.026797
-0.025725
-0.022410
-0.027089
-0.020185
-0.036264
-0.027095
-0.016435
-0.020892
-0.010840
-0.027715
-0.023413
-0.017275
-0.015169
-0.008055
-0.022068
-0.011260
-0.035920
-0.049675
-0.023711
-0.011309
-0.024613
-0.006713
-0.010091
-0.032091
-0.016432
-0.014407
-0.013106
-0.017538
-0.018616
-0.012594
-0.018124
-0.019751
-0.015372
-0.022484
-0.028516
-0.015574
-0.024983
-0.022579
-0.010012
-0.025638
-0.043103
-0.026815
-0.016891
-0.012433
-0.024167
-0.014572
-0.007356
-0.015393
-0.031571
-0.030846
-0.045341
-0.016789
-0.025955
-0.027937
-0.025358
-0.017507
-0.012487
-0.025332
-0.019592
-0.027418
-0.005272
-0.017428
-0.021612
-0.022286
-0.012138
-0.015756
-0.023627
-0.002423
-0.034486
-0.028289
-0.022817
-0.015375
-0.019725
-0.011155
-0.019964
-0.006425
-0.017693
-0.024168
-0.033508
-0.029567
-0.009540
-0.027575
-0.029915
-0.024564
-0.034058
-0.015687
-0.030148
-0.013837
-0.016736
-0.024504
-0.029051
-0.041361
-0.012602
-0.013328
-0.016080
-0.014797
-0.015936
-0.016192
-0.030717
-0.037949
-0.020419
-0.013965
-0.023880
-0.051820
-0.012350
-0.014613
-0.011035
-0.029487
-0.019800
-0.029548
-0.041927
-0.009336
-0.008099
-0.026996
-0.016541
-0.021730
-0.005673
-0.021136
-0.012024
-0.026196
-0.028545
-0.017268
-0.026920
-0.022304
-0.029935
-0.013207
-0.018470
-0.013495
-0.025328
-0.014910
-0.029293
-0.024888
-0.019158
-0.030710
-0.019351
-0.018515
-0.017720
-0.014713
-0.017643
-0.019952
-0.009949
-0.016629
-0.022267
-0.011053
-0.020779
-0.027321
-0.011553
-0.044856
-0.014884
-0.034868
-0.034660
-0.008011
-0.012925
-0.007418
-0.031354
-0.005835
-0.012345
-0.027694
-0.025303
-0.026483
-0.019006
-0.030590
-0.032640
-0.024912
-0.020434
-0.030551
-0.024568
-0.018275
-0.010357
-0.011684
-0.019195
-0.020000
-0.021612
-0.024240
-0.015090
-0.010191
-0.013976
-0.022521
-0.021855
-0.021525
-0.020153
-0.007697
-0.012883
-0.028275
-0.008889
-0.010420
-0.028947
-0.010061
-0.015103
-0.010822
-0.014117
-0.007011
-0.022774
-0.019686
-0.022855
-0.027287
-0.017065
-0.009448
-0.018322
-0.036871
-0.028235
-0.027572
-0.023892
-0.012615
-0.016579
-0.025601
-0.022681
-0.011283
-0.021276
-0.018648
-0.042314
-0.011991
-0.033752
-0.009259
-0.011046
-0.016181
-0.020169
-0.040777
-0.017790
-0.020953
-0.024868
-0.013086
-0.007294
-0.012754
-0.017648
-0.029071
-0.023259
-0.019603
-0.014084
-0.005645
-0.037187
-0.015250
-0.021275
-0.018054
-0.024574
-0.002052
-0.024416
-0.023748
-0.015109
-0.013031
-0.014958
-0.036676
-0.043658
-0.021986
-0.042020
-0.018729
-0.027865
-0.015639
-0.024520
-0.004607
-0.023148
-0.033977
-0.021513
-0.010638
-0.013183
-0.018635
-0.024944
-0.023537
-0.020739
-0.006397
-0.045195
-0.038551
-0.022956
-0.012645
-0.009822
-0.011200
-0.014054
-0.016684
-0.019351
-0.020587
-0.037833
-0.046684
-0.030123
-0.009789
-0.012560
-0.011202
-0.020780
-0.012542
-0.006480
-0.023263
-0.036083
-0.009456
-0.028802
-0.013407
-0.017224
-0.011325
-0.041723
-0.027740
-0.016141
-0.018451
-0.017227
-0.011796
-0.036473
-0.030525
-0.022198
-0.026563
-0.011907
-0.010354
-0.011965
-0.017845
-0.011911
-0.011262
-0.028483
-0.018361
-0.032458
-0.013468
-0.023600
-0.015342
-0.027135
-0.017629
-0.034151
-0.014246
-0.023578
-0.010184
-0.017251
-0.015550
-0.008579
-0.008320
-0.012060
-0.007496
-0.023698
-0.022226
-0.028798
-0.019185
-0.036625
-0.019297
-0.011479
-0.026970
-0.015486
-0.018752
-0.019429
-0.015407
-0.020651
-0.011545
-0.029930
-0.011671
-0.022698
-0.017991
-0.025896
-0.019141
-0.037116
-0.005610
-0.017305
-0.004453
-0.012294
-0.025244
-0.017583
-0.008847
-0.033323
-0.022837
-0.022356
-0.022967
-0.027653
-0.013774
-0.033729
-0.013024
-0.042883
-0.017586
-0.045594
-0.038960
-0.012115
-0.008127
-0.015142
-0.015007
-0.019952
-0.022566
-0.006488
-0.023178
-0.029554
-0.008940
-0.008473
-0.027682
-0.011616
-0.020127
-0.011515
-0.005273
-0.040599
